[
  {
    "name": "Nước",
    "formula": "H2O",
    "appearance": "Chất lỏng trong suốt, không màu, không mùi.",
    "solutionColor": "rgba(173, 216, 230, 0.5)",
    "description": "Dung môi phổ biến nhất, cần thiết cho sự sống và là một oxide lưỡng tính yếu.",
    "type": "oxide",
    "strength": "neutral",
    "stateAtSTP": "liquid",
    "isSoluble": true,
    "ionFormation": {"cation": "H+", "anion": "OH-"},
    "colorWhenDry": "Không màu",
    "density_g_cm3": 1,
    "boiling_point_C": 100,
    "melting_point_C": 0,
    "isFlammable": false,
    "isReactive": false,
    "specificReactions": []
  },
  {
    "name": "Axit Clohydric",
    "formula": "HCl",
    "appearance": "Chất lỏng không màu, bốc khói trong không khí ẩm.",
    "solutionColor": "rgba(255, 100, 100, 0.1)",
    "description": "Là một axit mạnh, ăn mòn nhiều kim loại. Dùng trong công nghiệp và phòng thí nghiệm.",
    "type": "acid",
    "strength": "strong",
    "stateAtSTP": "liquid",
    "isSoluble": true,
    "ionFormation": {"cation": "H+", "anion": "Cl-"},
    "colorWhenDry": "Không màu",
    "density_g_cm3": 1.18,
    "boiling_point_C": "Khoảng -85 (khan) đến 110 (dung dịch 20.2%)",
    "isFlammable": false,
    "isReactive": true,
    "specificReactions": [
      {"with": "NaOH", "phenomenon": "Phản ứng trung hòa, tỏa nhiệt.", "product": "NaCl, H2O"},
      {"with": "Zn", "phenomenon": "Sủi bọt khí H2.", "product": "ZnCl2, H2"}
    ]
  },
  {
    "name": "Natri Hydroxit",
    "formula": "NaOH",
    "appearance": "Chất rắn màu trắng, hút ẩm mạnh.",
    "solutionColor": "rgba(100, 100, 255, 0.1)",
    "description": "Là một bazơ mạnh, tan nhiều trong nước, tạo dung dịch kiềm ăn mòn.",
    "type": "base",
    "strength": "strong",
    "stateAtSTP": "solid",
    "isSoluble": true,
    "ionFormation": {"cation": "Na+", "anion": "OH-"},
    "colorWhenDry": "Trắng",
    "density_g_cm3": 2.13,
    "melting_point_C": 318,
    "boiling_point_C": 1388,
    "isFlammable": false,
    "isReactive": true,
    "specificReactions": [
      {"with": "HCl", "phenomenon": "Phản ứng trung hòa, tỏa nhiệt.", "product": "NaCl, H2O"},
      {"with": "CuCl2", "phenomenon": "Tạo kết tủa xanh lam Cu(OH)2.", "product": "Cu(OH)2, NaCl"}
    ]
  },
  {
    "name": "Axit Sunfuric",
    "formula": "H2SO4",
    "appearance": "Chất lỏng trong suốt, không màu, sánh, không mùi.",
    "solutionColor": "rgba(255, 255, 255, 0.1)",
    "description": "Là một axit mạnh, háo nước, ăn mòn cao. Dùng trong công nghiệp sản xuất phân bón, hóa chất và ắc quy.",
    "type": "acid",
    "strength": "strong",
    "stateAtSTP": "liquid",
    "isSoluble": true,
    "ionFormation": {"cation": "H+", "anion": "SO42-"},
    "colorWhenDry": "Không màu",
    "density_g_cm3": 1.84,
    "boiling_point_C": 337,
    "melting_point_C": 10.31,
    "isFlammable": false,
    "isReactive": true,
    "specificReactions": [
      {"with": "BaCl2", "phenomenon": "Tạo kết tủa trắng BaSO4.", "product": "BaSO4, HCl"},
      {"with": "Fe", "phenomenon": "Sủi bọt khí H2 (khi loãng), hoặc SO2 (khi đặc nóng).", "product": "FeSO4/Fe2(SO4)3, H2/SO2"}
    ]
  },
  {
    "name": "Natri Clorua",
    "formula": "NaCl",
    "appearance": "Chất rắn tinh thể màu trắng.",
    "solutionColor": "rgba(255, 255, 255, 0.1)",
    "description": "Muối ăn thông thường, tan tốt trong nước. Quan trọng trong sinh học và công nghiệp hóa chất.",
    "type": "salt",
    "strength": "neutral",
    "stateAtSTP": "solid",
    "isSoluble": true,
    "ionFormation": {"cation": "Na+", "anion": "Cl-"},
    "colorWhenDry": "Trắng",
    "density_g_cm3": 2.16,
    "boiling_point_C": 1413,
    "melting_point_C": 801,
    "isFlammable": false,
    "isReactive": false,
    "specificReactions": [
      {"with": "AgNO3", "phenomenon": "Tạo kết tủa trắng AgCl.", "product": "AgCl, NaNO3"}
    ]
  },
  {
    "name": "Đồng",
    "formula": "Cu",
    "appearance": "Kim loại rắn màu đỏ nâu.",
    "solutionColor": "rgba(200, 100, 50, 0.7)",
    "description": "Kim loại dẫn điện tốt, dẻo, dễ uốn. Dùng trong điện tử, xây dựng và tiền xu.",
    "type": "metal",
    "strength": "moderate",
    "stateAtSTP": "solid",
    "isSoluble": false,
    "ionFormation": null,
    "colorWhenDry": "Đỏ nâu",
    "density_g_cm3": 8.96,
    "boiling_point_C": 2567,
    "melting_point_C": 1085,
    "isFlammable": false,
    "isReactive": false,
    "specificReactions": [
      {"with": "AgNO3", "phenomenon": "Tạo bạc kim loại màu trắng trên bề mặt đồng.", "product": "Cu(NO3)2, Ag"},
      {"with": "HCl", "phenomenon": "Không phản ứng (khi loãng), hoặc tạo khí H2 (với Cu hoạt động).", "product": "N/A"}
    ]
  },
  {
    "name": "Carbon Dioxide",
    "formula": "CO2",
    "appearance": "Chất khí không màu, không mùi.",
    "solutionColor": "rgba(255, 255, 255, 0.05)",
    "description": "Khí nhà kính, sản phẩm của hô hấp và đốt cháy. Tan trong nước tạo axit cacbonic yếu.",
    "type": "oxide",
    "strength": "acidic",
    "stateAtSTP": "gas",
    "isSoluble": true,
    "ionFormation": null,
    "colorWhenDry": "Không màu",
    "density_g_cm3": 1.98,
    "boiling_point_C": -78.5,
    "melting_point_C": -56.6,
    "isFlammable": false,
    "isReactive": true,
    "specificReactions": [
      {"with": "H2O", "phenomenon": "Khí tan, tạo dung dịch axit yếu.", "product": "H2CO3"},
      {"with": "NaOH", "phenomenon": "Tạo muối và nước, không màu, không sủi bọt.", "product": "Na2CO3, H2O"}
    ]
  },
  {
    "name": "Kali Iodua",
    "formula": "KI",
    "appearance": "Chất rắn tinh thể màu trắng.",
    "solutionColor": "rgba(255, 255, 255, 0.1)",
    "description": "Muối iodua của kali, tan tốt trong nước. Dùng trong y học, nhiếp ảnh và hóa phân tích.",
    "type": "salt",
    "strength": "neutral",
    "stateAtSTP": "solid",
    "isSoluble": true,
    "ionFormation": {"cation": "K+", "anion": "I-"},
    "colorWhenDry": "Trắng",
    "density_g_cm3": 3.13,
    "boiling_point_C": 1330,
    "melting_point_C": 681,
    "isFlammable": false,
    "isReactive": true,
    "specificReactions": [
      {"with": "Pb(NO3)2", "phenomenon": "Tạo kết tủa vàng tươi PbI2.", "product": "PbI2, KNO3"},
      {"with": "Cl2", "phenomenon": "Dung dịch chuyển sang màu nâu vàng (do I2).", "product": "KCl, I2"}
    ]
  },
  {
    "name": "Oxy",
    "formula": "O2",
    "appearance": "Khí không màu, không mùi.",
    "solutionColor": "rgba(255, 255, 255, 0.05)",
    "description": "Khí cần thiết cho sự sống, là chất oxi hóa mạnh.",
    "type": "nonmetal",
    "strength": "N/A",
    "stateAtSTP": "gas",
    "isSoluble": false,
    "ionFormation": null,
    "colorWhenDry": "Không màu",
    "density_g_cm3": 0.001429,
    "boiling_point_C": -183,
    "melting_point_C": -218.4,
    "isFlammable": false,
    "isReactive": true,
    "specificReactions": []
  },
  {
    "name": "Nitơ",
    "formula": "N2",
    "appearance": "Khí không màu, không mùi.",
    "solutionColor": "rgba(255, 255, 255, 0.05)",
    "description": "Thành phần chính của không khí, khí trơ ở nhiệt độ phòng nhưng phản ứng ở nhiệt độ cao.",
    "type": "nonmetal",
    "strength": "N/A",
    "stateAtSTP": "gas",
    "isSoluble": false,
    "ionFormation": null,
    "colorWhenDry": "Không màu",
    "density_g_cm3": 0.001251,
    "boiling_point_C": -196,
    "melting_point_C": -210,
    "isFlammable": false,
    "isReactive": false,
    "specificReactions": []
  },
  {
    "name": "Sắt",
    "formula": "Fe",
    "appearance": "Kim loại rắn màu xám bạc.",
    "solutionColor": "rgba(150, 150, 150, 0.7)",
    "description": "Kim loại phổ biến, dễ bị gỉ. Dùng trong xây dựng, chế tạo máy.",
    "type": "metal",
    "strength": "active",
    "stateAtSTP": "solid",
    "isSoluble": false,
    "ionFormation": null,
    "colorWhenDry": "Xám bạc",
    "density_g_cm3": 7.87,
    "boiling_point_C": 2862,
    "melting_point_C": 1538,
    "isFlammable": false,
    "isReactive": true,
    "specificReactions": [
      {"with": "HCl", "phenomenon": "Sủi bọt khí H2.", "product": "FeCl2, H2"},
      {"with": "CuSO4", "phenomenon": "Tạo đồng kim loại màu đỏ nâu trên bề mặt sắt.", "product": "FeSO4, Cu"}
    ]
  },
  {
    "name": "Bari Clorua",
    "formula": "BaCl2",
    "appearance": "Chất rắn tinh thể màu trắng.",
    "solutionColor": "rgba(255, 255, 255, 0.1)",
    "description": "Muối bari, tan tốt trong nước. Dùng làm thuốc thử trong hóa phân tích.",
    "type": "salt",
    "strength": "neutral",
    "stateAtSTP": "solid",
    "isSoluble": true,
    "ionFormation": {"cation": "Ba2+", "anion": "Cl-"},
    "colorWhenDry": "Trắng",
    "density_g_cm3": 3.856,
    "boiling_point_C": 1560,
    "melting_point_C": 962,
    "isFlammable": false,
    "isReactive": false,
    "specificReactions": [
      {"with": "H2SO4", "phenomenon": "Tạo kết tủa trắng BaSO4.", "product": "BaSO4, HCl"}
    ]
  },
  {
    "name": "Ammoniac",
    "formula": "NH3",
    "appearance": "Khí không màu, mùi khai nồng.",
    "solutionColor": "rgba(173, 216, 230, 0.1)",
    "description": "Khí có tính bazơ yếu, tan nhiều trong nước tạo dung dịch amoniac. Dùng trong phân bón và sản xuất hóa chất.",
    "type": "base",
    "strength": "weak",
    "stateAtSTP": "gas",
    "isSoluble": true,
    "ionFormation": {"cation": "NH4+", "anion": "OH-"},
    "colorWhenDry": "Không màu",
    "density_g_cm3": 0.771, // (khí, so với không khí)
    "boiling_point_C": -33.34,
    "melting_point_C": -77.73,
    "isFlammable": true, // Có thể cháy
    "isReactive": true,
    "specificReactions": [
      {"with": "HCl", "phenomenon": "Tạo khói trắng NH4Cl.", "product": "NH4Cl"},
      {"with": "H2O", "phenomenon": "Khí tan, tạo dung dịch bazơ yếu.", "product": "NH4OH"}
    ]
  },
  {
    "name": "Lưu huỳnh",
    "formula": "S",
    "appearance": "Chất rắn màu vàng, không mùi.",
    "solutionColor": "rgba(255, 255, 0, 0.7)",
    "description": "Phi kim quan trọng, tồn tại ở nhiều dạng thù hình. Dùng trong sản xuất axit sunfuric.",
    "type": "nonmetal",
    "strength": "N/A",
    "stateAtSTP": "solid",
    "isSoluble": false,
    "ionFormation": null,
    "colorWhenDry": "Vàng",
    "density_g_cm3": 2.07,
    "boiling_point_C": 444.6,
    "melting_point_C": 115.2,
    "isFlammable": true,
    "isReactive": true,
    "specificReactions": [
      {"with": "O2", "phenomenon": "Cháy với lửa xanh tạo SO2.", "product": "SO2"},
      {"with": "Fe", "phenomenon": "Phản ứng tạo chất rắn màu đen FeS.", "product": "FeS"}
    ]
  },
  {
    "name": "Canxi Cacbonat",
    "formula": "CaCO3",
    "appearance": "Chất rắn màu trắng.",
    "solutionColor": "rgba(200, 200, 200, 0.7)",
    "description": "Thành phần chính của đá vôi, vỏ trứng, san hô. Ít tan trong nước.",
    "type": "salt",
    "strength": "neutral",
    "stateAtSTP": "solid",
    "isSoluble": false,
    "ionFormation": null,
    "colorWhenDry": "Trắng",
    "density_g_cm3": 2.71,
    "melting_point_C": 825, // phân hủy
    "boiling_point_C": "N/A",
    "isFlammable": false,
    "isReactive": true,
    "specificReactions": [
      {"with": "HCl", "phenomenon": "Sủi bọt khí CO2.", "product": "CaCl2, H2O, CO2"}
    ]
  }
]
